64
Lattice="10.862 0.0 0.0 0.0 10.862 0.0 0.0 0.0 10.862" Properties=species:S:1:pos:R:3:forces:R:3 energy=-6798.879004756259 pbc="T T T"
Si       9.72166735       0.48538441       0.58856092      -0.26910139       1.45803647      -0.60450031
Si       8.61374683       8.14437057      10.74562432      -0.04091784       0.07865915      -0.01377825
Si       4.94585904       7.69616373       7.82201472       0.01661206       0.01072151      -0.22693744
Si       1.96219578      10.16351009       1.30400352       0.30200073      -0.09461923      -0.06824453
Si       9.41422380      10.69503863       9.16723322      -0.64761343       1.05487565       0.18485950
Si       3.10330361       4.54777595      10.53761090       0.54341221       0.46309133      -0.01463818
Si       2.54943672      10.53763506       5.57800394       0.11674602       0.04891573       0.01847814
Si       7.79135521       0.84150843       1.87430044      -0.24811033       0.31528258       0.23961326
Si       6.32371186       5.47303593       0.34854695       0.19894235      -0.02027293       0.61162814
Si       4.82906402       9.71057861       5.95865300      -0.03590771       0.17849282       0.39152860
Si       9.91356910       3.23844336       1.21482516      -1.43551440      -1.20809153       0.14658836
Si       7.14498942       3.51959413       1.49330291      -0.00358273      -0.39010747       0.11491484
Si       2.79260550       7.27833446       3.15685233      -0.75529809       0.00385828      -0.16590553
Si       0.91039684       1.09157374       7.70626573      -0.16474786       0.40291082      -0.24601576
Si       4.43428185       6.79379125       0.23847806      -0.70686180      -0.03223821      -0.02873559
Si       0.81963479       4.10628848       0.30435291       0.65363052       0.36414951      -1.45324287
Si       1.14706954       1.74439382       1.26604721      -0.24311985      -0.14003381      -0.62535889
Si       2.36097466       3.25740420       3.82756227      -0.79955683       0.23057399       0.78776420
Si       5.35795623       9.63736157       2.30331064      -0.14547848      -0.15691638       0.07873509
Si       8.21394896       3.30529963       3.88956668       0.36931185       0.51754298      -0.51945559
Si       5.15789347       2.95006693      10.64323245      -0.41020495      -0.02894826       0.40022756
Si      10.17417722       6.27209158      10.40938930       0.33789859      -0.02444205      -0.84237371
Si       2.38709281       2.01381675       9.41883696      -0.36840804       0.69711084      -0.26423583
Si      10.58866932       4.97154062       2.51560908       0.68620463      -0.05892644       0.56978429
Si       7.08258694       1.82238396       5.29493096      -0.16024086       0.31604046       0.54158787
Si      10.65281388       6.89456257       3.97423126      -0.04512295       0.35946516       1.62906695
Si      10.18677803       5.69799752       7.01819810      -0.15447273      -0.26469042      -0.29898720
Si       5.79464217       4.88126145       9.11329007      -0.23103913       0.04020582      -0.80487381
Si       8.33169390       5.81766382       3.46168699      -0.29746442       0.37128726       0.14041131
Si       8.55893615       4.66463148       8.62735342       0.32351394       0.39321390      -0.20273954
Si       1.54353468       8.33344118       5.41459252       0.25051785      -0.66719895      -0.11629074
Si       6.97943435       7.51435103       5.78583767      -0.15605598       0.12340001      -0.05157292
Si       6.08619842       0.21428944       4.12491091       0.00390692      -0.92496406      -0.23328406
Si      10.76965591       7.27392142       1.83159252       0.56898730       0.42356814      -1.35283738
Si       8.20012628       9.60344255       4.82165834      -1.17546798      -0.43785956      -0.01571048
Si      10.55241396       9.36575905       0.71206482       0.68617303      -0.97640896       0.08014823
Si      10.74563880       3.00577581       8.92095899       0.08566490       0.13462110       0.19624848
Si       1.60768440       7.31377960      10.42193382      -0.17590749      -0.17795739       0.43652695
Si       6.68162866       9.62672695       7.83145136      -0.09528347       0.32545312      -0.10462224
Si       4.11555661       0.54646426      10.00258577       0.47439904       0.04454672       0.18761255
Si       1.97126784       6.70562754       7.31875775       0.06248553      -0.05024489      -0.16355047
Si       1.26293998      10.76086163       9.77444223      -0.11734324      -0.39100804       0.30344890
Si       2.91636937       4.36112687       8.04639892      -0.18792491       0.35621755       0.24669637
Si      10.10982647       9.40898110       3.63950556       0.18790502      -0.86599405      -0.30377003
Si       8.75849992       5.50988821       1.08648393      -0.60095093      -0.34523800       0.27284276
Si       2.22442229       5.30256177       1.96446091       0.17785814      -0.24677193       0.07985101
Si      10.23612562       0.69768357       2.86665918      -0.19471268       0.58291279       0.56223399
Si       3.48443558       2.66332629       2.09354646       0.67048611      -0.29277461      -1.11965263
Si       8.58018156       0.35323798       6.50950828      -0.23390849      -0.20406265       0.99134965
Si       8.01004819       5.12879034       5.85135608       0.26560016       0.00193776       0.16605128
Si       6.30530943       1.74743375       8.68092309      -0.50293332      -1.99203972       1.41135511
Si       8.40390162       7.40022816       7.78359130       0.42270981       0.00076085       0.26065562
Si       7.25344115       8.08308322       2.16982803       0.28396311      -0.22826511       0.01154990
Si       0.01697014      10.13709448       5.79508141       0.23638995      -0.45345340       0.59678802
Si       1.70202204       0.63217890       3.33473010       0.44149794       0.18814378       0.57601336
Si      10.27855160       9.08129955       8.00836485       0.15392133      -0.79030214      -0.86902670
Si       3.48438682       2.63245492       6.53669891      -0.31874125      -0.33316065      -0.02337212
Si       4.70673061       3.11847305       4.52620651       0.29997651      -0.17102902       0.02446120
Si       1.67405914       8.76683200       8.58552035       0.19916896      -0.16501758      -0.08350687
Si       4.53638892       8.12162810       4.21969295       0.95749036       0.37236375       0.09777967
Si       0.90170684       3.68098290       5.57172501      -0.30640968      -0.12339874       0.55722589
Si       7.84836214       2.89445571      10.07170125       0.53817474      -0.29173951       0.09264356
Si      10.32256044       1.47448122       5.41399485       0.42432214       0.84935822      -0.46376230
Si       6.63136714       3.24811512       7.29232122       0.28849627       1.84050186      -1.72601431
